          ******************************************************
          *         GAMESS VERSION =  1 MAY 2012 (R1)          *
          *             FROM IOWA STATE UNIVERSITY             *
          * M.W.SCHMIDT, K.K.BALDRIDGE, J.A.BOATZ, S.T.ELBERT, *
          *   M.S.GORDON, J.H.JENSEN, S.KOSEKI, N.MATSUNAGA,   *
          *          K.A.NGUYEN, S.J.SU, T.L.WINDUS,           *
          *       TOGETHER WITH M.DUPUIS, J.A.MONTGOMERY       *
          *         J.COMPUT.CHEM.  14, 1347-1363(1993)        *
          **************** 64 BIT LINUX VERSION ****************


     RUN TITLE
     ---------
 cn

 THE POINT GROUP OF THE MOLECULE IS C1
 THE ORDER OF THE PRINCIPAL AXIS IS     1

 ATOM      ATOMIC                      COORDINATES (BOHR)
           CHARGE         X                   Y                   Z
C           6.0     -0.425880000000       2.539750000000       0.000000000000
N           7.0     0.336870000000       3.350710000000       0.000000000000



     ATOMIC BASIS SET
     ----------------
 THE CONTRACTED PRIMITIVE FUNCTIONS HAVE BEEN UNNORMALIZED
 THE CONTRACTED BASIS FUNCTIONS ARE NOW NORMALIZED TO UNITY

  SHELL TYPE  PRIMITIVE        EXPONENT          CONTRACTION COEFFICIENT(S)

 C

      1 S 1      3047.5249000    0.001834700000
      1 S 2       457.3695100    0.014037300000
      1 S 3       103.9486900    0.068842600000
      1 S 4        29.2101550    0.232184400000
      1 S 5         9.2866630    0.467941300000
      1 S 6         3.1639270    0.362312000000

      2 S 7         7.8682724    -0.119332400000
      2 S 8         1.8812885    -0.160854200000
      2 S 9         0.5442493    1.143456400000

      3 P 10         7.8682724    0.068999100000
      3 P 11         1.8812885    0.316424000000
      3 P 12         0.5442493    0.744308300000

      4 S 13         0.1687144    1.000000000000

      5 P 14         0.1687144    1.000000000000

      6 D 15         0.8000000    1.000000000000

N

      7 S 16      4173.5110000    0.001834800000
      7 S 17       627.4579000    0.013995000000
      7 S 18       142.9021000    0.068587000000
      7 S 19        40.2343300    0.232241000000
      7 S 20        12.8202100    0.469070000000
      7 S 21         4.3904370    0.360455000000

      8 S 22        11.6263580    -0.114961000000
      8 S 23         2.7162800    -0.169118000000
      8 S 24         0.7722180    1.145852000000

      9 P 25        11.6263580    0.067580000000
      9 P 26         2.7162800    0.323907000000
      9 P 27         0.7722180    0.740895000000

      10 S 28         0.2120313    1.000000000000

      11 P 29         0.2120313    1.000000000000

      12 D 30         0.8000000    1.000000000000


 TOTAL NUMBER OF BASIS SET SHELLS             =    12
 NUMBER OF CARTESIAN GAUSSIAN BASIS FUNCTIONS =    30
 NUMBER OF ELECTRONS                          =   14
 CHARGE OF MOLECULE                           =    -1
 SPIN MULTIPLICITY                            =    1
 NUMBER OF OCCUPIED ORBITALS (ALPHA)          =    7
 NUMBER OF OCCUPIED ORBITALS (BETA )          =    7
 TOTAL NUMBER OF ATOMS                        =    2

     ------------------------------------------
     THE POINT GROUP IS C1 , NAXIS= 1, ORDER= 1
     ------------------------------------------

     DIMENSIONS OF THE SYMMETRY SUBSPACES ARE
 A   =    30

          ------------
          EIGENVECTORS
          ------------

                            1         2         3         4         5
                     -72.3190   -35.0909   -23.9625   -23.3003   -22.8982 
                           A         A         A         A         A         
    0  C   1  S       0.0359    0.9413    0.1782   -0.0001   -0.0000
    1  C   1  S       0.0831    0.0449   -0.3148   -0.0001   -0.0000
    2  C   1  X       0.1116   -0.0031   -0.2368   -0.4235   -0.0000
    3  C   1  Y       0.1184   -0.0039   -0.2519    0.3985    0.0000
    4  C   1  Z       0.0000    0.0000   -0.0000   -0.0000    0.5782
    5  C   1  S       0.0361    0.0573   -0.3140   -0.0000   -0.0000
    6  C   1  X       0.0289    0.0011   -0.0915   -0.2073   -0.0000
    7  C   1  Y       0.0306    0.0010   -0.0973    0.1950    0.0000
    8  C   1  Z      -0.0000    0.0000   -0.0000   -0.0000    0.2852
    9  C   1  XX      0.0755   -0.0023   -0.2113   -0.1312   -0.0000
    10  C   1  XY      0.1439    0.0027    0.0012   -0.0125   -0.0000
    11  C   1  XZ     -0.0000   -0.0000   -0.0000   -0.0000    0.1395
    12  C   1  YY      0.0867   -0.0020   -0.2116    0.1313    0.0000
    13  C   1  YZ      0.0000    0.0000   -0.0000   -0.0000    0.1483
    14  C   1  ZZ     -0.0117   -0.0085   -0.2114   -0.0001   -0.0000
    15  N   2  S       0.9584   -0.0562    0.1740    0.0001    0.0000
    16  N   2  S       0.0686    0.1030   -0.4082    0.0002    0.0000
    17  N   2  X      -0.0076   -0.1357    0.1345   -0.4627   -0.0000
    18  N   2  Y      -0.0076   -0.1442    0.1430    0.4353    0.0000
    19  N   2  Z      -0.0000    0.0000   -0.0000   -0.0000    0.6297
    20  N   2  S       0.0635    0.0537   -0.3279   -0.0000   -0.0000
    21  N   2  X      -0.0048   -0.0532    0.0209   -0.2528   -0.0000
    22  N   2  Y      -0.0049   -0.0564    0.0222    0.2378    0.0000
    23  N   2  Z       0.0000   -0.0000   -0.0000   -0.0000    0.3467
    24  N   2  XX     -0.0070    0.0914   -0.2138    0.1050    0.0000
    25  N   2  XY      0.0166    0.1656    0.0609    0.0100    0.0000
    26  N   2  XZ      0.0000   -0.0000    0.0000    0.0000   -0.1110
    27  N   2  YY     -0.0057    0.1044   -0.2093   -0.1053   -0.0000
    28  N   2  YZ      0.0000   -0.0000    0.0000    0.0000   -0.1180
    29  N   2  ZZ     -0.0211   -0.0086   -0.2490    0.0001    0.0000

                            6         7         8         9        10
                     -16.6766   -10.6365   -10.2185   -10.0721    -7.9987 
                           A         A         A         A         A         
    0  C   1  S       0.1074   -0.0269    0.0029   -0.0000   -0.0002
    1  C   1  S      -0.1513    0.1814   -0.1413   -0.0000   -0.0002
    2  C   1  X      -0.0561   -0.4095   -0.0013   -0.0000   -0.0152
    3  C   1  Y      -0.0600   -0.4357   -0.0010    0.0000    0.0148
    4  C   1  Z       0.0000    0.0000   -0.0000    0.0103   -0.0000
    5  C   1  S       0.0668    0.4602    0.6978    0.0000    0.0003
    6  C   1  X       0.2149   -0.2849    0.3427   -0.0000   -0.6524
    7  C   1  Y       0.2285   -0.3028    0.3638    0.0000    0.6144
    8  C   1  Z       0.0000    0.0000   -0.0000    0.8930   -0.0000
    9  C   1  XX     -0.0400    0.1545   -0.1243    0.0000    0.1857
    10  C   1  XY      0.1281    0.0523   -0.1593    0.0000    0.0171
    11  C   1  XZ      0.0000    0.0000    0.0000   -0.1956    0.0000
    12  C   1  YY     -0.0303    0.1584   -0.1370   -0.0000   -0.1856
    13  C   1  YZ      0.0000    0.0000    0.0000   -0.2079    0.0000
    14  C   1  ZZ     -0.1184    0.1209   -0.0224   -0.0000   -0.0001
    15  N   2  S      -0.0205    0.0507    0.0213   -0.0000   -0.0003
    16  N   2  S       0.1313   -0.1389   -0.2218   -0.0000   -0.0005
    17  N   2  X       0.4492    0.1499   -0.1272    0.0000    0.2168
    18  N   2  Y       0.4780    0.1596   -0.1357   -0.0000   -0.2046
    19  N   2  Z       0.0000    0.0000    0.0000   -0.2840    0.0000
    20  N   2  S       0.2487    0.1993   -0.0282   -0.0000   -0.0001
    21  N   2  X       0.3476   -0.1236    0.0197    0.0000    0.1031
    22  N   2  Y       0.3698   -0.1313    0.0208   -0.0000   -0.0975
    23  N   2  Z       0.0000    0.0000    0.0000   -0.1368    0.0000
    24  N   2  XX      0.1406    0.0345   -0.1876    0.0000    0.0954
    25  N   2  XY      0.0806    0.1087   -0.0633    0.0000    0.0087
    26  N   2  XZ     -0.0000   -0.0000    0.0000   -0.1007    0.0000
    27  N   2  YY      0.1468    0.0428   -0.1924   -0.0000   -0.0953
    28  N   2  YZ      0.0000   -0.0000    0.0000   -0.1070    0.0000
    29  N   2  ZZ      0.0884   -0.0314   -0.1453   -0.0000   -0.0002

                           11        12        13        14        15
                      -7.5790    -6.0839    -5.2080    -4.6381    -3.6404 
                           A         A         A         A         A         
    0  C   1  S      -0.0060    0.0000    0.0004    0.0791    0.0000
    1  C   1  S      -0.1669    0.0000    0.0005   -0.3015    0.0000
    2  C   1  X       0.2216    0.0000    0.2863    0.2489    0.0000
    3  C   1  Y       0.2349   -0.0000   -0.2703    0.2656   -0.0000
    4  C   1  Z      -0.0000    0.3762   -0.0000    0.0000    0.4224
    5  C   1  S       0.2928   -0.0000   -0.0003    0.2188    0.0000
    6  C   1  X      -0.4345   -0.0000   -0.1299   -0.1343   -0.0000
    7  C   1  Y      -0.4617    0.0000    0.1226   -0.1427    0.0000
    8  C   1  Z       0.0000   -0.1817    0.0000   -0.0000   -0.2912
    9  C   1  XX     -0.1067   -0.0000   -0.0719   -0.1213   -0.0000
    10  C   1  XY      0.0755   -0.0000   -0.0065    0.0197   -0.0000
    11  C   1  XZ     -0.0000   -0.0763    0.0000    0.0000   -0.3075
    12  C   1  YY     -0.1006    0.0000    0.0716   -0.1195    0.0000
    13  C   1  YZ     -0.0000   -0.0811    0.0000   -0.0000   -0.3269
    14  C   1  ZZ     -0.1538    0.0000    0.0003   -0.1278    0.0000
    15  N   2  S      -0.0258    0.0000    0.0002   -0.0233    0.0000
    16  N   2  S       0.0272    0.0000    0.0002    0.1483    0.0000
    17  N   2  X      -0.1248    0.0000    0.0893    0.3089   -0.0000
    18  N   2  Y      -0.1326   -0.0000   -0.0835    0.3281    0.0000
    19  N   2  Z      -0.0000    0.1321   -0.0000   -0.0000   -0.4455
    20  N   2  S       0.0546   -0.0000   -0.0000   -0.0347   -0.0000
    21  N   2  X       0.3614   -0.0000   -0.6003   -0.4001    0.0000
    22  N   2  Y       0.3852    0.0000    0.5645   -0.4256   -0.0000
    23  N   2  Z       0.0000   -0.8184    0.0000    0.0000    0.4211
    24  N   2  XX     -0.0562   -0.0000   -0.2327   -0.0149   -0.0000
    25  N   2  XY      0.0288   -0.0000   -0.0215   -0.2283   -0.0000
    26  N   2  XZ     -0.0000   -0.2430    0.0000    0.0000   -0.2736
    27  N   2  YY     -0.0535    0.0000    0.2326   -0.0337    0.0000
    28  N   2  YZ     -0.0000   -0.2584    0.0000    0.0000   -0.2909
    29  N   2  ZZ     -0.0768    0.0000    0.0001    0.1301    0.0000

                           16        17        18        19        20
                      -2.3245    -2.1847    -1.8778    -1.8739    -1.3429 
                           A         A         A         A         A         
    0  C   1  S      -0.0005   -0.0728   -0.0069   -0.0000   -0.0399
    1  C   1  S      -0.0004    0.1320   -0.0060   -0.0000    0.0206
    2  C   1  X      -0.3249    0.0154    0.0077    0.0000    0.1534
    3  C   1  Y       0.3066    0.0144    0.0062    0.0000    0.1624
    4  C   1  Z       0.0000   -0.0000   -0.0000    0.0000   -0.0000
    5  C   1  S       0.0000    0.1932    0.0007    0.0000   -0.0206
    6  C   1  X       0.2079    0.0441    0.0035    0.0000   -0.0543
    7  C   1  Y      -0.1951    0.0464    0.0033    0.0000   -0.0574
    8  C   1  Z      -0.0000    0.0000    0.0000   -0.0000   -0.0000
    9  C   1  XX      0.3034    0.1060   -0.2570   -0.0000   -0.0420
    10  C   1  XY      0.0270    0.3189    0.3588    0.0000   -0.6533
    11  C   1  XZ     -0.0000    0.0000    0.0000   -0.5082    0.0000
    12  C   1  YY     -0.3028    0.1325   -0.2273   -0.0000   -0.0988
    13  C   1  YZ     -0.0000   -0.0000   -0.0000    0.4780    0.0000
    14  C   1  ZZ     -0.0002   -0.1106    0.4900    0.0000    0.3824
    15  N   2  S      -0.0005   -0.0860   -0.0061   -0.0000    0.0702
    16  N   2  S      -0.0008    0.3733   -0.0107   -0.0000    0.0113
    17  N   2  X       0.3416    0.0681   -0.0051   -0.0000    0.1578
    18  N   2  Y      -0.3220    0.0741   -0.0036   -0.0000    0.1659
    19  N   2  Z      -0.0000    0.0000    0.0000   -0.0000   -0.0000
    20  N   2  S      -0.0000   -0.6604   -0.0002   -0.0000   -0.0096
    21  N   2  X      -0.2998   -0.0090   -0.0050   -0.0000   -0.0040
    22  N   2  Y       0.2814   -0.0088   -0.0045   -0.0000   -0.0044
    23  N   2  Z       0.0000   -0.0000   -0.0000    0.0000    0.0000
    24  N   2  XX      0.2693   -0.0184   -0.2641   -0.0000    0.0362
    25  N   2  XY      0.0240    0.3590    0.3674    0.0000    0.4724
    26  N   2  XZ     -0.0000    0.0000    0.0000   -0.5219   -0.0000
    27  N   2  YY     -0.2686    0.0122   -0.2337   -0.0000    0.0775
    28  N   2  YZ     -0.0000   -0.0000   -0.0000    0.4908   -0.0000
    29  N   2  ZZ     -0.0002   -0.2647    0.5037    0.0000   -0.2623

                           21        22        23        24        25
                      -1.1853    -0.5274    -0.5115    -0.4828    -0.3386 
                           A         A         A         A         A         
    0  C   1  S      -0.0000   -0.0007    0.0052   -0.0000    0.1572
    1  C   1  S      -0.0000   -0.0007    0.0066   -0.0000    0.2902
    2  C   1  X       0.0000    0.1593   -0.0015    0.0000   -0.1215
    3  C   1  Y      -0.0000   -0.1494   -0.0009    0.0000   -0.1266
    4  C   1  Z      -0.2369    0.0000    0.0000    0.0000   -0.0000
    5  C   1  S      -0.0000   -0.0000    0.0001   -0.0000    0.0372
    6  C   1  X      -0.0000   -0.0236    0.0004   -0.0000   -0.0605
    7  C   1  Y       0.0000    0.0222    0.0003   -0.0000   -0.0638
    8  C   1  Z       0.0346   -0.0000    0.0000    0.0000   -0.0000
    9  C   1  XX     -0.0000   -0.4563   -0.2724    0.0000   -0.0372
    10  C   1  XY     -0.0000   -0.0398    0.3480   -0.0000   -0.3303
    11  C   1  XZ      0.4404   -0.0000   -0.0000   -0.5219   -0.0000
    12  C   1  YY      0.0000    0.4571   -0.2411    0.0000   -0.0670
    13  C   1  YZ      0.4683   -0.0000    0.0000    0.4908   -0.0000
    14  C   1  ZZ     -0.0000   -0.0004    0.5096   -0.0000    0.2092
    15  N   2  S       0.0000    0.0005   -0.0044    0.0000    0.0735
    16  N   2  S       0.0000    0.0009   -0.0085    0.0000    0.3408
    17  N   2  X       0.0000    0.1461   -0.0021    0.0000    0.1024
    18  N   2  Y      -0.0000   -0.1370   -0.0014    0.0000    0.1069
    19  N   2  Z      -0.2174    0.0000    0.0000    0.0000    0.0000
    20  N   2  S       0.0000    0.0001   -0.0009    0.0000   -0.3286
    21  N   2  X      -0.0000   -0.0428   -0.0004    0.0000    0.1698
    22  N   2  Y       0.0000    0.0403   -0.0005    0.0000    0.1795
    23  N   2  Z       0.0607   -0.0000    0.0000    0.0000    0.0000
    24  N   2  XX      0.0000    0.4931    0.2659   -0.0000   -0.1771
    25  N   2  XY      0.0000    0.0427   -0.3377    0.0000   -0.5146
    26  N   2  XZ     -0.4739    0.0000    0.0000    0.5082   -0.0000
    27  N   2  YY     -0.0000   -0.4940    0.2355   -0.0000   -0.2226
    28  N   2  YZ     -0.5039    0.0000   -0.0000   -0.4780   -0.0000
    29  N   2  ZZ      0.0000    0.0004   -0.4965    0.0000    0.1848

                           26        27        28        29        30
                      -0.2061    -0.1861    -0.0971    -0.0030     0.0084 
                           A         A         A         A         A         
    0  C   1  S       0.0858    0.0000    0.0004    0.1157   -0.1001
    1  C   1  S       0.0051    0.0000    0.0005   -0.4010   -0.6592
    2  C   1  X       0.0787   -0.0000   -0.3713    0.1051   -0.2516
    3  C   1  Y       0.0835    0.0000    0.3482    0.1123   -0.2675
    4  C   1  Z       0.0000   -0.5380    0.0000    0.0000    0.0000
    5  C   1  S      -0.1360   -0.0000   -0.0001    0.0420   -0.0263
    6  C   1  X       0.0197   -0.0000   -0.0293   -0.0043    0.0009
    7  C   1  Y       0.0209    0.0000    0.0270   -0.0045    0.0010
    8  C   1  Z       0.0000   -0.0474    0.0000    0.0000    0.0000
    9  C   1  XX      0.2216   -0.0000   -0.3757    0.4247    0.0176
    10  C   1  XY      0.1514   -0.0000   -0.0300    0.0378   -0.1148
    11  C   1  XZ      0.0000   -0.3425    0.0000    0.0000    0.0000
    12  C   1  YY      0.2338    0.0000    0.3750    0.4291    0.0063
    13  C   1  YZ      0.0000   -0.3642    0.0000    0.0000    0.0000
    14  C   1  ZZ      0.1282    0.0000    0.0002    0.3958    0.1043
    15  N   2  S      -0.1297    0.0000    0.0004   -0.0177    0.0922
    16  N   2  S       0.1646    0.0000    0.0011   -0.3476    0.5530
    17  N   2  X       0.0828    0.0000    0.3513    0.0436   -0.1809
    18  N   2  Y       0.0887   -0.0000   -0.3298    0.0462   -0.1926
    19  N   2  Z      -0.0000    0.5096   -0.0000   -0.0000   -0.0000
    20  N   2  S       0.3776    0.0000    0.0001   -0.2933    0.0782
    21  N   2  X      -0.0148    0.0000    0.0650    0.0940   -0.0253
    22  N   2  Y      -0.0156   -0.0000   -0.0604    0.0998   -0.0270
    23  N   2  Z      -0.0000    0.1016   -0.0000   -0.0000   -0.0000
    24  N   2  XX     -0.4583   -0.0000   -0.3291    0.0618    0.0282
    25  N   2  XY     -0.0414   -0.0000   -0.0259   -0.1412    0.0453
    26  N   2  XZ      0.0000   -0.2974    0.0000    0.0000    0.0000
    27  N   2  YY     -0.4619    0.0000    0.3281    0.0508    0.0327
    28  N   2  YZ      0.0000   -0.3162    0.0000    0.0000    0.0000
    29  N   2  ZZ     -0.4361   -0.0000    0.0001    0.1461   -0.0038
 ...... END OF RHF CALCULATION ......


