          ******************************************************
          *         GAMESS VERSION =  1 MAY 2012 (R1)          *
          *             FROM IOWA STATE UNIVERSITY             *
          * M.W.SCHMIDT, K.K.BALDRIDGE, J.A.BOATZ, S.T.ELBERT, *
          *   M.S.GORDON, J.H.JENSEN, S.KOSEKI, N.MATSUNAGA,   *
          *          K.A.NGUYEN, S.J.SU, T.L.WINDUS,           *
          *       TOGETHER WITH M.DUPUIS, J.A.MONTGOMERY       *
          *         J.COMPUT.CHEM.  14, 1347-1363(1993)        *
          **************** 64 BIT LINUX VERSION ****************


     RUN TITLE
     ---------
 formaldehyde

 THE POINT GROUP OF THE MOLECULE IS C1
 THE ORDER OF THE PRINCIPAL AXIS IS     1

 ATOM      ATOMIC                      COORDINATES (BOHR)
           CHARGE         X                   Y                   Z
C           6.0     -0.113550000000       1.720340000000       0.000000000000
O           8.0     -0.828910000000       2.714310000000       -0.000000000000
H           1.0     0.914260000000       1.736040000000       0.396360000000
H           1.0     -0.454810000000       0.750720000000       -0.396360000000



     ATOMIC BASIS SET
     ----------------
 THE CONTRACTED PRIMITIVE FUNCTIONS HAVE BEEN UNNORMALIZED
 THE CONTRACTED BASIS FUNCTIONS ARE NOW NORMALIZED TO UNITY

  SHELL TYPE  PRIMITIVE        EXPONENT          CONTRACTION COEFFICIENT(S)

 C

      1 S 1      3047.5249000    0.001834700000
      1 S 2       457.3695100    0.014037300000
      1 S 3       103.9486900    0.068842600000
      1 S 4        29.2101550    0.232184400000
      1 S 5         9.2866630    0.467941300000
      1 S 6         3.1639270    0.362312000000

      2 S 7         7.8682724    -0.119332400000
      2 S 8         1.8812885    -0.160854200000
      2 S 9         0.5442493    1.143456400000

      3 P 10         7.8682724    0.068999100000
      3 P 11         1.8812885    0.316424000000
      3 P 12         0.5442493    0.744308300000

      4 S 13         0.1687144    1.000000000000

      5 P 14         0.1687144    1.000000000000

      6 D 15         0.8000000    1.000000000000

O

      7 S 16      5484.6717000    0.001831100000
      7 S 17       825.2349500    0.013950100000
      7 S 18       188.0469600    0.068445100000
      7 S 19        52.9645000    0.232714300000
      7 S 20        16.8975700    0.470193000000
      7 S 21         5.7996353    0.358520900000

      8 S 22        15.5396160    -0.110777500000
      8 S 23         3.5999336    -0.148026300000
      8 S 24         1.0137618    1.130767000000

      9 P 25        15.5396160    0.070874300000
      9 P 26         3.5999336    0.339752800000
      9 P 27         1.0137618    0.727158600000

      10 S 28         0.2700058    1.000000000000

      11 P 29         0.2700058    1.000000000000

      12 D 30         0.8000000    1.000000000000

H

      13 S 31        18.7311370    0.033494600000
      13 S 32         2.8253937    0.234726950000
      13 S 33         0.6401217    0.813757330000

      14 S 34         0.1612778    1.000000000000

      15 P 35         1.1000000    1.000000000000

H

      16 S 36        18.7311370    0.033494600000
      16 S 37         2.8253937    0.234726950000
      16 S 38         0.6401217    0.813757330000

      17 S 39         0.1612778    1.000000000000

      18 P 40         1.1000000    1.000000000000


 TOTAL NUMBER OF BASIS SET SHELLS             =    18
 NUMBER OF CARTESIAN GAUSSIAN BASIS FUNCTIONS =    40
 NUMBER OF ELECTRONS                          =   16
 CHARGE OF MOLECULE                           =    0
 SPIN MULTIPLICITY                            =    1
 NUMBER OF OCCUPIED ORBITALS (ALPHA)          =    8
 NUMBER OF OCCUPIED ORBITALS (BETA )          =    8
 TOTAL NUMBER OF ATOMS                        =    4

     ------------------------------------------
     THE POINT GROUP IS C1 , NAXIS= 1, ORDER= 1
     ------------------------------------------

     DIMENSIONS OF THE SYMMETRY SUBSPACES ARE
 A   =    40

          ------------
          EIGENVECTORS
          ------------

                            1         2         3         4         5
                     -105.0492   -48.1142   -33.5006   -30.9416   -30.1744 
                           A         A         A         A         A         
    0  C   1  S      -0.0040    0.9250    0.1873    0.0006   -0.1051
    1  C   1  S      -0.0554    0.0240   -0.3030    0.0004    0.2473
    2  C   1  X       0.0642   -0.0086    0.2325   -0.4364    0.3068
    3  C   1  Y      -0.0886    0.0098   -0.3228   -0.3145   -0.4270
    4  C   1  Z       0.0000    0.0000    0.0000   -0.2531    0.0000
    5  C   1  S      -0.0251    0.0543   -0.1995   -0.0000    0.1930
    6  C   1  X       0.0204   -0.0001    0.0732   -0.1728    0.1160
    7  C   1  Y      -0.0282   -0.0001   -0.1016   -0.1246   -0.1612
    8  C   1  Z      -0.0001    0.0000   -0.0001   -0.1012   -0.0000
    9  C   1  XX     -0.0405   -0.0078   -0.1905    0.0454    0.1946
    10  C   1  XY      0.1236   -0.0019    0.0753   -0.0249    0.0699
    11  C   1  XZ      0.0022    0.0046   -0.0013    0.0214    0.0657
    12  C   1  YY     -0.0927   -0.0074   -0.2245   -0.0462    0.1627
    13  C   1  YZ      0.0017    0.0034   -0.0007   -0.0299    0.0474
    14  C   1  ZZ      0.0126   -0.0174   -0.1523    0.0004    0.1395
    15  O   2  S      -0.9712   -0.0193    0.1603   -0.0002    0.0399
    16  O   2  S      -0.0860    0.0720   -0.4385   -0.0004   -0.1475
    17  O   2  X       0.0011    0.0794   -0.1697   -0.3894   -0.0802
    18  O   2  Y      -0.0039   -0.1097    0.2339   -0.2802    0.1101
    19  O   2  Z      -0.0000    0.0000   -0.0000   -0.2293   -0.0000
    20  O   2  S      -0.0675    0.0554   -0.2681   -0.0001    0.0458
    21  O   2  X      -0.0013    0.0544   -0.0342   -0.2261    0.1046
    22  O   2  Y       0.0006   -0.0748    0.0465   -0.1624   -0.1458
    23  O   2  Z       0.0000    0.0000    0.0000   -0.1329    0.0000
    24  O   2  XX      0.0184    0.0536   -0.1838   -0.0976    0.0144
    25  O   2  XY      0.0081   -0.1424   -0.0186    0.0516   -0.0650
    26  O   2  XZ      0.0002   -0.0020    0.0017   -0.0445    0.0054
    27  O   2  YY      0.0153    0.1136   -0.1773    0.0977    0.0412
    28  O   2  YZ      0.0001   -0.0015    0.0012    0.0617    0.0039
    29  O   2  ZZ      0.0248   -0.0091   -0.1899   -0.0002   -0.0209
    30  H   3  S      -0.0014    0.0837   -0.0817   -0.2686    0.3558
    31  H   3  S      -0.0133    0.0389   -0.1266   -0.0761    0.2293
    32  H   3  X       0.0071   -0.1493    0.0450    0.0484   -0.0167
    33  H   3  Y      -0.0159   -0.0021   -0.0895   -0.0941   -0.1320
    34  H   3  Z      -0.0005   -0.0577   -0.0064   -0.0081   -0.0440
    35  H   4  S      -0.0032    0.0846   -0.0833    0.2698    0.3547
    36  H   4  S      -0.0134    0.0390   -0.1266    0.0761    0.2293
    37  H   4  X       0.0123    0.0486    0.0700   -0.0747    0.1297
    38  H   4  Y      -0.0105    0.1416   -0.0700    0.0768   -0.0248
    39  H   4  Z      -0.0002    0.0580    0.0059   -0.0077    0.0436

                            6         7         8         9        10
                     -26.9876   -18.1970   -16.7027   -14.8056   -14.4469 
                           A         A         A         A         A         
    0  C   1  S       0.0003   -0.0847    0.0010    0.0338   -0.0003
    1  C   1  S       0.0002    0.0865    0.0004   -0.1678   -0.0002
    2  C   1  X      -0.1901   -0.0649   -0.1762   -0.0799    0.0375
    3  C   1  Y      -0.1371    0.0910   -0.1271    0.1125    0.0271
    4  C   1  Z       0.4881    0.0001   -0.1048   -0.0000   -0.0924
    5  C   1  S      -0.0000   -0.0892   -0.0001    0.0031    0.0000
    6  C   1  X      -0.0853    0.1417   -0.1711   -0.0300    0.2986
    7  C   1  Y      -0.0614   -0.1968   -0.1243    0.0420    0.2153
    8  C   1  Z       0.2198   -0.0000   -0.1118    0.0000   -0.7560
    9  C   1  XX      0.0601    0.0118   -0.2716   -0.1114    0.0834
    10  C   1  XY     -0.0319    0.1119    0.1418    0.0692   -0.0436
    11  C   1  XZ     -0.1238    0.0040   -0.1256    0.0430   -0.1633
    12  C   1  YY     -0.0605   -0.0349    0.2701   -0.1408   -0.0828
    13  C   1  YZ      0.1718    0.0029    0.1759    0.0310    0.2265
    14  C   1  ZZ      0.0002    0.0574    0.0005   -0.1367   -0.0002
    15  O   2  S      -0.0004    0.0411    0.0019    0.0098   -0.0006
    16  O   2  S      -0.0009   -0.2099    0.0047   -0.0693   -0.0015
    17  O   2  X      -0.2163    0.4147    0.3772    0.0238   -0.1236
    18  O   2  Y      -0.1557   -0.5783    0.2723   -0.0349   -0.0893
    19  O   2  Z       0.5592   -0.0000    0.2186   -0.0000    0.2956
    20  O   2  S      -0.0002   -0.2763    0.0006   -0.1020   -0.0002
    21  O   2  X      -0.1298    0.2312    0.2319   -0.0444   -0.0518
    22  O   2  Y      -0.0935   -0.3224    0.1696    0.0604   -0.0382
    23  O   2  Z       0.3357    0.0000    0.1323   -0.0000    0.1168
    24  O   2  XX     -0.0418   -0.1740   -0.1299   -0.0394    0.0435
    25  O   2  XY      0.0219    0.0278    0.0659    0.0803   -0.0219
    26  O   2  XZ      0.0820   -0.0013   -0.0627    0.0362   -0.0871
    27  O   2  YY      0.0422   -0.1845    0.1270   -0.0742   -0.0426
    28  O   2  YZ     -0.1140   -0.0010    0.0873    0.0261    0.1210
    29  O   2  ZZ     -0.0003   -0.1581    0.0014   -0.0507   -0.0004
    30  H   3  S       0.0003    0.0436   -0.2811   -0.0783    0.0070
    31  H   3  S      -0.0003   -0.0461   -0.1921    0.6315    0.0116
    32  H   3  X      -0.0521   -0.0274   -0.1091    0.0962    0.0491
    33  H   3  Y      -0.0401    0.0410   -0.0064    0.0848    0.0316
    34  H   3  Z       0.1407    0.0018   -0.0400    0.0593   -0.1159
    35  H   4  S       0.0006    0.0419    0.2802   -0.0800   -0.0068
    36  H   4  S       0.0003   -0.0463    0.1920    0.6312   -0.0116
    37  H   4  X      -0.0566   -0.0304   -0.0296   -0.1108    0.0420
    38  H   4  Y      -0.0359    0.0400   -0.1024   -0.0640    0.0368
    39  H   4  Z       0.1410   -0.0024   -0.0403   -0.0598   -0.1158

                           11        12        13        14        15
                     -12.1777    -9.3762    -8.6341    -7.4608    -7.1497 
                           A         A         A         A         A         
    0  C   1  S       0.0091   -0.0009   -0.0000   -0.0196   -0.0007
    1  C   1  S      -0.0027   -0.0006   -0.0001    0.0855   -0.0008
    2  C   1  X      -0.0678    0.2053   -0.0988    0.0277    0.1679
    3  C   1  Y       0.0928    0.1483   -0.0711   -0.0353    0.1215
    4  C   1  Z      -0.0001    0.1153   -0.0526   -0.0014   -0.4287
    5  C   1  S      -0.4140    0.0001   -0.0000   -0.7198    0.0024
    6  C   1  X       0.4723   -0.3438    0.4800   -0.2283   -0.1255
    7  C   1  Y      -0.6566   -0.2464    0.3458    0.3167   -0.0913
    8  C   1  Z       0.0001   -0.2145    0.2726    0.0011    0.3485
    9  C   1  XX     -0.0018    0.1020    0.0736    0.0777    0.0506
    10  C   1  XY     -0.1627   -0.0502   -0.0337    0.1256   -0.0267
    11  C   1  XZ      0.0245    0.0403    0.0290    0.1857   -0.1015
    12  C   1  YY      0.0680   -0.1004   -0.0731    0.0244   -0.0496
    13  C   1  YZ      0.0174   -0.0567   -0.0410    0.1345    0.1396
    14  C   1  ZZ     -0.1111   -0.0006   -0.0001   -0.1157   -0.0002
    15  O   2  S      -0.0214   -0.0008   -0.0004    0.0098   -0.0004
    16  O   2  S       0.2549   -0.0024   -0.0018    0.1013   -0.0013
    17  O   2  X      -0.0616   -0.0613   -0.1814   -0.0747   -0.0237
    18  O   2  Y       0.0893   -0.0445   -0.1305    0.1005   -0.0180
    19  O   2  Z       0.0001   -0.0269   -0.1035    0.0001    0.0428
    20  O   2  S       0.0243   -0.0002   -0.0002   -0.0888    0.0003
    21  O   2  X      -0.0355   -0.0842    0.3443    0.1631   -0.2020
    22  O   2  Y       0.0513   -0.0623    0.2470   -0.2301   -0.1454
    23  O   2  Z      -0.0000   -0.0440    0.1954    0.0017    0.5248
    24  O   2  XX      0.0923    0.1347    0.0220    0.1100    0.1120
    25  O   2  XY     -0.0349   -0.0661   -0.0069    0.0779   -0.0567
    26  O   2  XZ      0.0185    0.0572    0.0092    0.0948   -0.2212
    27  O   2  YY      0.1054   -0.1331   -0.0210    0.0746   -0.1118
    28  O   2  YZ      0.0134   -0.0796   -0.0127    0.0698    0.3067
    29  O   2  ZZ      0.0464   -0.0005   -0.0002    0.0123   -0.0003
    30  H   3  S      -0.0157    0.1134   -0.0730    0.1610    0.0032
    31  H   3  S       0.0496   -0.5263   -0.3485    0.0122   -0.0031
    32  H   3  X       0.0387   -0.0791    0.0319   -0.0425    0.0707
    33  H   3  Y      -0.0386    0.0624    0.0595    0.1119    0.0518
    34  H   3  Z       0.0013   -0.0180    0.0292    0.0084   -0.1814
    35  H   4  S      -0.0127   -0.1138    0.0736    0.1583   -0.0052
    36  H   4  S       0.0500    0.5265    0.3485    0.0121    0.0031
    37  H   4  X       0.0249    0.0291    0.0637   -0.0924    0.0698
    38  H   4  Y      -0.0507   -0.0949    0.0121    0.0772    0.0494
    39  H   4  Z      -0.0003   -0.0183    0.0292   -0.0106   -0.1817

                           16        17        18        19        20
                      -4.9305    -4.8669    -4.5357    -4.4421    -3.5627 
                           A         A         A         A         A         
    0  C   1  S      -0.0650    0.0001   -0.0013    0.0039    0.0875
    1  C   1  S       0.1077    0.0001   -0.0010    0.0003   -0.0883
    2  C   1  X       0.0402   -0.0869   -0.0376    0.0040   -0.0445
    3  C   1  Y      -0.0606   -0.0626   -0.0261   -0.0002    0.0662
    4  C   1  Z       0.0001    0.2244   -0.0238   -0.0000    0.0000
    5  C   1  S      -0.1822   -0.0000    0.0001   -0.0025    0.2540
    6  C   1  X      -0.0584    0.0957    0.3238    0.0033    0.0977
    7  C   1  Y       0.0805    0.0686    0.2336   -0.0036   -0.1348
    8  C   1  Z       0.0000   -0.2594    0.1862   -0.0001   -0.0001
    9  C   1  XX      0.0266   -0.0793   -0.1252    0.2325    0.1249
    10  C   1  XY     -0.0058    0.0394    0.0639    0.2596    0.3085
    11  C   1  XZ      0.1154    0.1525   -0.0506   -0.3480    0.3428
    12  C   1  YY      0.0251    0.0790    0.1276    0.1190   -0.0105
    13  C   1  YZ      0.0832   -0.2114    0.0711   -0.2501    0.2471
    14  C   1  ZZ     -0.1365    0.0001   -0.0010   -0.3589   -0.1928
    15  O   2  S       0.0040    0.0005    0.0007    0.0042    0.0252
    16  O   2  S      -0.0821    0.0014    0.0017    0.0050   -0.1154
    17  O   2  X       0.2228    0.1769    0.2189   -0.0037   -0.0121
    18  O   2  Y      -0.3079    0.1275    0.1572   -0.0017    0.0097
    19  O   2  Z      -0.0000   -0.4543    0.1213   -0.0001   -0.0001
    20  O   2  S      -0.0121    0.0002    0.0005    0.0055    0.2198
    21  O   2  X      -0.4388   -0.2324   -0.5190   -0.0076   -0.0160
    22  O   2  Y       0.6121   -0.1667   -0.3743    0.0056    0.0175
    23  O   2  Z       0.0001    0.6275   -0.2963   -0.0000   -0.0000
    24  O   2  XX     -0.0025   -0.0285    0.1840    0.2225    0.1437
    25  O   2  XY     -0.2343    0.0131   -0.0901    0.2410    0.1915
    26  O   2  XZ      0.0563    0.0500    0.0784   -0.3247    0.2658
    27  O   2  YY      0.1023    0.0277   -0.1844    0.1151    0.0595
    28  O   2  YZ      0.0404   -0.0694   -0.1087   -0.2337    0.1912
    29  O   2  ZZ     -0.1982    0.0003    0.0006   -0.3372   -0.1335
    30  H   3  S       0.1590   -0.0038   -0.1310    0.0109    0.0898
    31  H   3  S      -0.0080    0.0012   -0.1443   -0.0007   -0.1420
    32  H   3  X      -0.0424   -0.0480   -0.0337    0.0970    0.2368
    33  H   3  Y      -0.0700   -0.0336    0.0406    0.0695    0.2236
    34  H   3  Z      -0.0390    0.1218    0.0016   -0.2546    0.1459
    35  H   4  S       0.1607    0.0033    0.1273    0.0046    0.0833
    36  H   4  S      -0.0077   -0.0013    0.1444   -0.0010   -0.1422
    37  H   4  X       0.0784   -0.0441    0.0320   -0.0967   -0.2878
    38  H   4  Y       0.0193   -0.0354   -0.0475   -0.0683   -0.1511
    39  H   4  Z       0.0396    0.1217    0.0004    0.2526   -0.1480

                           21        22        23        24        25
                      -3.0276    -2.6107    -1.8222    -1.5373    -1.1129 
                           A         A         A         A         A         
    0  C   1  S       0.0105   -0.0017   -0.0268    0.0871   -0.0012
    1  C   1  S       0.0188   -0.0014    0.0689   -0.0598   -0.0011
    2  C   1  X       0.0352    0.0782   -0.0875   -0.0084   -0.0137
    3  C   1  Y      -0.0441    0.0576    0.1114    0.0098   -0.0090
    4  C   1  Z      -0.0000    0.0397    0.0005    0.0000    0.0509
    5  C   1  S      -0.2513    0.0001   -0.0093   -0.0421    0.0001
    6  C   1  X       0.0581   -0.0486    0.0370   -0.0483    0.0200
    7  C   1  Y      -0.0795   -0.0343   -0.0526    0.0667    0.0149
    8  C   1  Z      -0.0002   -0.0276   -0.0002    0.0001   -0.0515
    9  C   1  XX     -0.0573   -0.1773    0.0183   -0.0169   -0.1453
    10  C   1  XY      0.3321    0.0926    0.3401   -0.1209    0.0739
    11  C   1  XZ     -0.1280   -0.0768   -0.0791    0.1417    0.2809
    12  C   1  YY     -0.2094    0.1804   -0.1389    0.0352    0.1477
    13  C   1  YZ     -0.0915    0.1079   -0.0560    0.1018   -0.3892
    14  C   1  ZZ      0.3012   -0.0013    0.2885   -0.2600   -0.0010
    15  O   2  S       0.0872    0.0010    0.0286   -0.0159    0.0008
    16  O   2  S      -0.3384    0.0028    0.0758   -0.0009    0.0024
    17  O   2  X       0.0685   -0.2772   -0.1237    0.0732   -0.0869
    18  O   2  Y      -0.1035   -0.2000    0.1690   -0.0985   -0.0630
    19  O   2  Z      -0.0002   -0.1622   -0.0001    0.0000    0.2363
    20  O   2  S       0.5170    0.0007   -0.1571    0.1031    0.0006
    21  O   2  X      -0.0802    0.1089   -0.0187    0.0203    0.0278
    22  O   2  Y       0.1056    0.0776    0.0287   -0.0259    0.0194
    23  O   2  Z      -0.0000    0.0632    0.0002    0.0000   -0.0746
    24  O   2  XX      0.0994    0.2783   -0.1524   -0.1816    0.2001
    25  O   2  XY      0.1845   -0.1358   -0.5781   -0.0679   -0.0954
    26  O   2  XZ     -0.1050    0.1170   -0.2193   -0.4347   -0.3708
    27  O   2  YY      0.0127   -0.2792    0.1190   -0.1483   -0.2009
    28  O   2  YZ     -0.0756   -0.1623   -0.1582   -0.3128    0.5153
    29  O   2  ZZ      0.3686    0.0009   -0.1198    0.3994    0.0007
    30  H   3  S      -0.0388   -0.1864    0.0740    0.1625   -0.0051
    31  H   3  S       0.0292    0.1664   -0.0119   -0.0373    0.0003
    32  H   3  X      -0.0948   -0.3549    0.0832    0.3443   -0.0979
    33  H   3  Y       0.0610    0.2528    0.2759   -0.1022   -0.0647
    34  H   3  Z      -0.0085   -0.0633    0.1154    0.0949    0.2471
    35  H   4  S      -0.0467    0.1813    0.0725    0.1652    0.0010
    36  H   4  S       0.0292   -0.1662   -0.0116   -0.0372   -0.0001
    37  H   4  X      -0.0288    0.1335   -0.2930   -0.0121   -0.0869
    38  H   4  Y       0.1119   -0.4206    0.0158   -0.3599   -0.0752
    39  H   4  Z       0.0061   -0.0650   -0.1161   -0.0940    0.2458

                           26        27        28        29        30
                      -0.8497    -0.8431    -0.6556    -0.4336    -0.4026 
                           A         A         A         A         A         
    0  C   1  S      -0.0031    0.0008    0.0537   -0.0023   -0.0000
    1  C   1  S      -0.0038    0.0009   -0.0423   -0.0022    0.0001
    2  C   1  X      -0.0033    0.1366   -0.0207   -0.0966    0.1048
    3  C   1  Y      -0.0003    0.0977    0.0255   -0.0681    0.0755
    4  C   1  Z       0.0002    0.0815    0.0001   -0.0650   -0.2705
    5  C   1  S      -0.0003   -0.0000   -0.1562    0.0002   -0.0000
    6  C   1  X      -0.0014    0.1168   -0.0730   -0.0630    0.0054
    7  C   1  Y       0.0014    0.0840    0.1006   -0.0437    0.0044
    8  C   1  Z      -0.0001    0.0673    0.0001   -0.0373   -0.0130
    9  C   1  XX      0.1220    0.1531   -0.0922   -0.0194    0.1497
    10  C   1  XY      0.1225   -0.0756   -0.1505    0.0117   -0.0690
    11  C   1  XZ     -0.1845    0.0616   -0.2897   -0.0061   -0.2685
    12  C   1  YY      0.0632   -0.1548   -0.0216    0.0247   -0.1494
    13  C   1  YZ     -0.1324   -0.0869   -0.2088    0.0091    0.3716
    14  C   1  ZZ     -0.1842    0.0006    0.2351   -0.0018   -0.0001
    15  O   2  S       0.0010   -0.0010   -0.0067    0.0000   -0.0010
    16  O   2  S       0.0028   -0.0029   -0.1025   -0.0001   -0.0034
    17  O   2  X       0.0006    0.0030    0.0625    0.0488    0.0548
    18  O   2  Y      -0.0015    0.0025   -0.0829    0.0340    0.0396
    19  O   2  Z      -0.0001    0.0042    0.0001    0.0302   -0.1626
    20  O   2  S       0.0011   -0.0006    0.1958    0.0006   -0.0005
    21  O   2  X       0.0022   -0.0479    0.0880    0.1558    0.0065
    22  O   2  Y      -0.0013   -0.0343   -0.1189    0.1090    0.0036
    23  O   2  Z       0.0001   -0.0272    0.0000    0.0939   -0.0260
    24  O   2  XX     -0.2636   -0.1498    0.1586    0.4098    0.0116
    25  O   2  XY     -0.2660    0.0704   -0.1501   -0.1859   -0.0035
    26  O   2  XZ      0.3812   -0.0600    0.2216    0.1613   -0.0189
    27  O   2  YY     -0.1366    0.1510    0.2319   -0.4087   -0.0097
    28  O   2  YZ      0.2742    0.0831    0.1594   -0.2240    0.0262
    29  O   2  ZZ      0.4020   -0.0007   -0.2485    0.0003   -0.0006
    30  H   3  S       0.0001   -0.0737    0.0193   -0.0325    0.0088
    31  H   3  S      -0.0004   -0.0079    0.0081    0.0310   -0.0003
    32  H   3  X       0.1481   -0.4456    0.3939    0.1598   -0.1893
    33  H   3  Y       0.0990   -0.3551   -0.2096   -0.4568   -0.1380
    34  H   3  Z      -0.3716   -0.2700    0.1029   -0.0654    0.5025
    35  H   4  S      -0.0001    0.0774    0.0233    0.0267   -0.0070
    36  H   4  S      -0.0002    0.0077    0.0080   -0.0306    0.0003
    37  H   4  X      -0.1430   -0.4846    0.0737   -0.3813   -0.1973
    38  H   4  Y      -0.1062   -0.3070   -0.4407    0.2933   -0.1342
    39  H   4  Z       0.3715   -0.2690   -0.1019   -0.0673    0.5027

                           31        32        33        34        35
                      -0.3222    -0.2711    -0.2333    -0.1735    -0.0527 
                           A         A         A         A         A         
    0  C   1  S      -0.1530    0.0007   -0.0005   -0.1007    0.0005
    1  C   1  S      -0.1729    0.0007   -0.0039    0.0619    0.0004
    2  C   1  X      -0.0229    0.1890   -0.0001   -0.0828    0.3223
    3  C   1  Y       0.0238    0.1356   -0.0005    0.1121    0.2314
    4  C   1  Z       0.0003   -0.5106    0.0001   -0.0000    0.1911
    5  C   1  S       0.0409   -0.0000   -0.0017   -0.0128    0.0001
    6  C   1  X      -0.0083    0.0189    0.0003   -0.0061    0.0520
    7  C   1  Y       0.0099    0.0125   -0.0000    0.0086    0.0356
    8  C   1  Z      -0.0000   -0.0526   -0.0001   -0.0000    0.0322
    9  C   1  XX      0.0981   -0.1286    0.2446   -0.1505   -0.4037
    10  C   1  XY     -0.0444    0.0590    0.2305    0.1584    0.1825
    11  C   1  XZ      0.2073    0.2343   -0.3263    0.0935   -0.1526
    12  C   1  YY      0.1194    0.1266    0.1273   -0.2411    0.4017
    13  C   1  YZ      0.1491   -0.3246   -0.2340    0.0680    0.2155
    14  C   1  ZZ     -0.2487    0.0006   -0.3773   -0.2049    0.0006
    15  O   2  S       0.0148    0.0008    0.0024   -0.0435    0.0023
    16  O   2  S      -0.3594    0.0030    0.0095    0.1936    0.0087
    17  O   2  X       0.0371   -0.1280   -0.0017   -0.0483   -0.2788
    18  O   2  Y      -0.0478   -0.0919   -0.0022    0.0658   -0.2009
    19  O   2  Z       0.0001    0.3548   -0.0002   -0.0002   -0.1701
    20  O   2  S       0.1111    0.0002    0.0006    0.5436    0.0010
    21  O   2  X       0.1447   -0.0485   -0.0025    0.0994   -0.0539
    22  O   2  Y      -0.1958   -0.0329    0.0015   -0.1380   -0.0355
    23  O   2  Z       0.0001    0.1420    0.0000   -0.0000   -0.0370
    24  O   2  XX      0.2006   -0.1570   -0.0956   -0.3076   -0.1523
    25  O   2  XY     -0.4481    0.0686   -0.0835   -0.1659    0.0626
    26  O   2  XZ     -0.0828    0.2753    0.1287   -0.0068   -0.0573
    27  O   2  YY      0.4205    0.1550   -0.0497   -0.2303    0.1475
    28  O   2  YZ     -0.0598   -0.3825    0.0926   -0.0049    0.0798
    29  O   2  ZZ      0.0799    0.0005    0.1431   -0.3781    0.0014
    30  H   3  S      -0.2333   -0.0080    0.0086    0.0278    0.0107
    31  H   3  S       0.0341    0.0002   -0.0007    0.0137   -0.0806
    32  H   3  X      -0.1151   -0.0468   -0.1692   -0.1081    0.1603
    33  H   3  Y      -0.0579   -0.0344   -0.1285   -0.1921   -0.2280
    34  H   3  Z      -0.0662    0.1209    0.4534   -0.0953    0.0065
    35  H   4  S      -0.2293    0.0084    0.0035    0.0255   -0.0140
    36  H   4  S       0.0340   -0.0004   -0.0004    0.0144    0.0805
    37  H   4  X       0.0898   -0.0424    0.1737    0.2146   -0.1501
    38  H   4  Y       0.0928   -0.0338    0.1222    0.0431    0.2213
    39  H   4  Z       0.0672    0.1212   -0.4549    0.0948    0.0064

                           36        37        38        39        40
                      -0.0369    -0.0250    -0.0071    -0.0057     0.0057 
                           A         A         A         A         A         
    0  C   1  S      -0.1262    0.0586    0.0001    0.0141    0.1148
    1  C   1  S       0.0820   -0.1386    0.0003    0.0205    0.8429
    2  C   1  X       0.1832    0.1688    0.3542    0.3008   -0.0155
    3  C   1  Y      -0.2568   -0.2364    0.2553   -0.4180    0.0215
    4  C   1  Z       0.0001    0.0001    0.2049   -0.0001    0.0000
    5  C   1  S       0.1083   -0.1429   -0.0001    0.0064   -0.0295
    6  C   1  X       0.0132   -0.0137   -0.0342   -0.0126   -0.0005
    7  C   1  Y      -0.0194    0.0179   -0.0241    0.0183    0.0005
    8  C   1  Z       0.0001    0.0002   -0.0204   -0.0001    0.0000
    9  C   1  XX     -0.4579    0.2294    0.2085    0.0564   -0.0424
    10  C   1  XY     -0.2746   -0.3273   -0.0901    0.3213   -0.0684
    11  C   1  XZ     -0.1768   -0.0260    0.0750    0.1142    0.0392
    12  C   1  YY     -0.3144    0.3947   -0.2084   -0.1147   -0.0062
    13  C   1  YZ     -0.1281   -0.0198   -0.1058    0.0831    0.0280
    14  C   1  ZZ     -0.3376    0.0959   -0.0001    0.0528   -0.1470
    15  O   2  S       0.0193   -0.0895   -0.0008    0.0739   -0.0365
    16  O   2  S       0.1023   -0.0312   -0.0035    0.5102   -0.2446
    17  O   2  X       0.0815    0.0454    0.0437    0.1450   -0.0758
    18  O   2  Y      -0.1074   -0.0558    0.0318   -0.2060    0.1064
    19  O   2  Z       0.0003    0.0003    0.0279   -0.0003    0.0001
    20  O   2  S       0.0957    0.3380   -0.0005   -0.0436   -0.0254
    21  O   2  X       0.0626   -0.0031    0.0118    0.0053   -0.0147
    22  O   2  Y      -0.0832    0.0088    0.0078   -0.0098    0.0210
    23  O   2  Z       0.0001    0.0000    0.0084   -0.0001    0.0000
    24  O   2  XX      0.1349   -0.2479    0.0022    0.0483   -0.0411
    25  O   2  XY     -0.0655   -0.0607    0.0015   -0.0405    0.0175
    26  O   2  XZ      0.0284   -0.0414   -0.0002   -0.0127   -0.0054
    27  O   2  YY      0.1584   -0.2181   -0.0005    0.0728   -0.0503
    28  O   2  YZ      0.0203   -0.0298    0.0004   -0.0091   -0.0039
    29  O   2  ZZ      0.0580   -0.2295   -0.0004    0.0504   -0.0243
    30  H   3  S       0.1225   -0.1540   -0.5213   -0.3146   -0.2557
    31  H   3  S      -0.0255    0.0366    0.0516    0.0104    0.0130
    32  H   3  X      -0.0558    0.0007    0.2039    0.1216    0.1088
    33  H   3  Y       0.2943    0.3088    0.0284   -0.0902    0.0237
    34  H   3  Z       0.0620    0.0821    0.0831    0.0220    0.0467
    35  H   4  S       0.1294   -0.1461    0.5235   -0.3203   -0.2545
    36  H   4  S      -0.0259    0.0361   -0.0516    0.0111    0.0129
    37  H   4  X      -0.2601   -0.2910    0.0861    0.0452   -0.0566
    38  H   4  Y       0.1448    0.0947    0.1860   -0.1422   -0.0961
    39  H   4  Z      -0.0602   -0.0799    0.0833   -0.0234   -0.0464
 ...... END OF RHF CALCULATION ......


