          ******************************************************
          *         GAMESS VERSION =  1 MAY 2012 (R1)          *
          *             FROM IOWA STATE UNIVERSITY             *
          * M.W.SCHMIDT, K.K.BALDRIDGE, J.A.BOATZ, S.T.ELBERT, *
          *   M.S.GORDON, J.H.JENSEN, S.KOSEKI, N.MATSUNAGA,   *
          *          K.A.NGUYEN, S.J.SU, T.L.WINDUS,           *
          *       TOGETHER WITH M.DUPUIS, J.A.MONTGOMERY       *
          *         J.COMPUT.CHEM.  14, 1347-1363(1993)        *
          **************** 64 BIT LINUX VERSION ****************


     RUN TITLE
     ---------
 H2O

 THE POINT GROUP OF THE MOLECULE IS C1
 THE ORDER OF THE PRINCIPAL AXIS IS     1

 ATOM      ATOMIC                      COORDINATES (BOHR)
           CHARGE         X                   Y                   Z
O           8.0     0.000000000000       0.000000000000       0.000000000000
H           1.0     1.889716164632       0.000000000000       0.000000000000
H           1.0     -0.473147140962       1.829524245773       0.000000000000



     ATOMIC BASIS SET
     ----------------
 THE CONTRACTED PRIMITIVE FUNCTIONS HAVE BEEN UNNORMALIZED
 THE CONTRACTED BASIS FUNCTIONS ARE NOW NORMALIZED TO UNITY

  SHELL TYPE  PRIMITIVE        EXPONENT          CONTRACTION COEFFICIENT(S)

 O

      1 S 1       130.7093200    0.154328970000
      1 S 2        23.8088610    0.535328140000
      1 S 3         6.4436083    0.444634540000

      2 S 4         5.0331513    -0.099967230000
      2 S 5         1.1695961    0.399512830000
      2 S 6         0.3803890    0.700115470000

      3 P 7         5.0331513    0.155916270000
      3 P 8         1.1695961    0.607683720000
      3 P 9         0.3803890    0.391957390000

H

      4 S 10         3.4252509    0.154328970000
      4 S 11         0.6239137    0.535328140000
      4 S 12         0.1688554    0.444634540000

H

      5 S 13         3.4252509    0.154328970000
      5 S 14         0.6239137    0.535328140000
      5 S 15         0.1688554    0.444634540000


 TOTAL NUMBER OF BASIS SET SHELLS             =    5
 NUMBER OF CARTESIAN GAUSSIAN BASIS FUNCTIONS =    7
 NUMBER OF ELECTRONS                          =   10
 CHARGE OF MOLECULE                           =    0
 SPIN MULTIPLICITY                            =    1
 NUMBER OF OCCUPIED ORBITALS (ALPHA)          =    5
 NUMBER OF OCCUPIED ORBITALS (BETA )          =    5
 TOTAL NUMBER OF ATOMS                        =    3

     ------------------------------------------
     THE POINT GROUP IS C1 , NAXIS= 1, ORDER= 1
     ------------------------------------------

     DIMENSIONS OF THE SYMMETRY SUBSPACES ARE
 A   =    7

          ------------
          EIGENVECTORS
          ------------

                            1         2         3         4         5
                      -7.0000    -6.0000    -5.0000    -4.0000    -3.0000 
                           A         A         A         A         A         
    0  O   1  S       1.0000    0.0000    0.0000    0.0000    0.0000
    1  O   1  S       0.0000    1.0000    0.0000    0.0000    0.0000
    2  O   1  X       0.0000    0.0000    1.0000    0.0000    0.0000
    3  O   1  Y       0.0000    0.0000    0.0000    1.0000    0.0000
    4  O   1  Z       0.0000    0.0000    0.0000    0.0000    1.0000
    5  H   2  S       0.0000    0.0000    0.0000    0.0000    0.0000
    6  H   3  S       0.0000    0.0000    0.0000    0.0000    0.0000

                            6         7
                      -2.0000    -1.0000 
                           A         A         
    0  O   1  S       0.0000    0.0000
    1  O   1  S       0.0000    0.0000
    2  O   1  X       0.0000    0.0000
    3  O   1  Y       0.0000    0.0000
    4  O   1  Z       0.0000    0.0000
    5  H   2  S       1.0000    0.0000
    6  H   3  S       0.0000    1.0000
 ...... END OF RHF CALCULATION ......


